Variables= "Steps","ContactAngles","CL_buttom","CL_Velocity_buttom"
ZONE
F = POINT
   100      171.884635        0.000000        0.000000
