Variables= "Steps","cost"
ZONE
F = POINT
     1        6.433514
     2        5.924947
     3        5.471499
     4        5.064864
     5        4.698322
     6        4.366391
     7        4.064556
     8        3.789075
     9        3.536824
    10        3.305175
    11        3.091904
    12        2.895119
    13        2.713198
    14        2.544744
    15        2.388545
    16        2.243544
    17        2.108816
    18        1.983540
    19        1.866990
    20        1.758518
    21        1.657538
    22        1.563525
    23        1.475997
    24        1.394518
    25        1.318683
    26        1.248123
    27        1.182492
    28        1.121471
    29        1.064761
    30        1.012083
    31        0.963174
    32        0.917789
    33        0.875696
    34        0.836676
    35        0.800526
    36        0.767049
    37        0.736066
    38        0.707402
    39        0.680897
    40        0.656397
    41        0.633761
    42        0.612852
    43        0.593544
    44        0.575719
    45        0.559267
    46        0.544082
    47        0.530069
    48        0.517136
    49        0.505200
    50        0.494182
    51        0.484009
    52        0.474613
    53        0.465933
    54        0.457910
    55        0.450489
    56        0.443623
    57        0.437264
    58        0.431371
    59        0.425904
    60        0.420829
    61        0.416112
    62        0.411724
    63        0.407635
    64        0.403822
    65        0.400261
    66        0.396930
    67        0.393810
    68        0.390884
    69        0.388135
    70        0.385548
    71        0.383109
    72        0.380807
    73        0.378630
    74        0.376568
    75        0.374612
    76        0.372752
    77        0.370981
    78        0.369293
    79        0.367680
    80        0.366137
    81        0.364658
    82        0.363239
    83        0.361875
    84        0.360563
    85        0.359298
    86        0.358077
    87        0.356897
    88        0.355756
    89        0.354650
    90        0.353579
    91        0.352538
    92        0.351528
    93        0.350545
    94        0.349588
    95        0.348657
    96        0.347748
    97        0.346862
    98        0.345998
    99        0.345153
   100        0.344328
   101        0.343521
   102        0.342731
   103        0.341959
   104        0.341202
   105        0.340461
   106        0.339735
   107        0.339024
   108        0.338326
   109        0.337642
   110        0.336970
   111        0.336312
   112        0.335666
   113        0.335031
   114        0.334408
   115        0.333797
   116        0.333196
   117        0.332606
   118        0.332027
   119        0.331458
   120        0.330898
   121        0.330349
   122        0.329808
   123        0.329278
   124        0.328756
   125        0.328243
   126        0.327739
   127        0.327244
   128        0.326757
   129        0.326278
   130        0.325807
   131        0.325344
   132        0.324889
   133        0.324442
   134        0.324002
   135        0.323569
   136        0.323144
   137        0.322726
   138        0.322315
   139        0.321910
   140        0.321513
   141        0.321122
   142        0.320738
   143        0.320360
   144        0.319988
   145        0.319622
   146        0.319263
   147        0.318910
   148        0.318562
   149        0.318220
   150        0.317884
   151        0.317554
   152        0.317229
   153        0.316909
   154        0.316595
   155        0.316286
   156        0.315983
   157        0.315684
   158        0.315390
   159        0.315101
   160        0.314817
   161        0.314538
   162        0.314263
   163        0.313994
   164        0.313728
   165        0.313467
   166        0.313210
   167        0.312958
   168        0.312710
   169        0.312466
   170        0.312226
   171        0.311990
   172        0.311758
   173        0.311530
   174        0.311306
   175        0.311085
   176        0.310869
   177        0.310655
   178        0.310446
   179        0.310240
   180        0.310037
   181        0.309838
   182        0.309642
   183        0.309450
   184        0.309260
   185        0.309074
   186        0.308891
   187        0.308711
   188        0.308534
   189        0.308361
   190        0.308190
   191        0.308021
   192        0.307856
   193        0.307694
   194        0.307534
   195        0.307377
   196        0.307222
   197        0.307071
   198        0.306921
   199        0.306775
   200        0.306630
   201        0.306488
   202        0.306349
   203        0.306212
   204        0.306077
   205        0.305945
   206        0.305814
   207        0.305686
   208        0.305560
   209        0.305437
   210        0.305315
   211        0.305195
   212        0.305078
   213        0.304962
   214        0.304848
   215        0.304736
   216        0.304627
   217        0.304518
   218        0.304412
   219        0.304308
   220        0.304205
   221        0.304104
   222        0.304005
   223        0.303907
   224        0.303812
   225        0.303717
   226        0.303625
   227        0.303533
   228        0.303444
   229        0.303356
   230        0.303269
   231        0.303184
   232        0.303100
   233        0.303018
   234        0.302937
   235        0.302858
   236        0.302780
   237        0.302703
   238        0.302627
   239        0.302553
   240        0.302480
   241        0.302408
   242        0.302338
   243        0.302268
   244        0.302200
   245        0.302133
   246        0.302067
   247        0.302002
   248        0.301938
   249        0.301876
   250        0.301814
   251        0.301754
   252        0.301694
   253        0.301636
   254        0.301578
   255        0.301521
   256        0.301466
   257        0.301411
   258        0.301357
   259        0.301305
   260        0.301253
   261        0.301202
   262        0.301151
   263        0.301102
   264        0.301053
   265        0.301006
   266        0.300959
   267        0.300913
   268        0.300867
   269        0.300823
   270        0.300779
   271        0.300736
   272        0.300693
   273        0.300652
   274        0.300611
   275        0.300571
   276        0.300531
   277        0.300492
   278        0.300454
   279        0.300416
   280        0.300379
   281        0.300343
   282        0.300307
   283        0.300272
   284        0.300237
   285        0.300203
   286        0.300170
   287        0.300137
   288        0.300105
   289        0.300073
   290        0.300042
   291        0.300011
   292        0.299981
   293        0.299951
   294        0.299922
   295        0.299893
   296        0.299865
   297        0.299837
   298        0.299810
   299        0.299783
   300        0.299757
   301        0.299731
   302        0.299706
   303        0.299681
   304        0.299656
   305        0.299632
   306        0.299608
   307        0.299585
   308        0.299561
   309        0.299539
   310        0.299517
   311        0.299495
   312        0.299473
   313        0.299452
   314        0.299431
   315        0.299411
   316        0.299391
   317        0.299371
   318        0.299351
   319        0.299332
   320        0.299313
   321        0.299295
   322        0.299277
   323        0.299259
   324        0.299241
   325        0.299224
   326        0.299207
   327        0.299190
   328        0.299174
   329        0.299158
   330        0.299142
   331        0.299126
   332        0.299111
   333        0.299096
   334        0.299081
   335        0.299066
   336        0.299052
   337        0.299038
   338        0.299024
   339        0.299010
   340        0.298997
   341        0.298983
   342        0.298970
   343        0.298958
   344        0.298945
   345        0.298933
   346        0.298920
   347        0.298909
   348        0.298897
   349        0.298885
   350        0.298874
   351        0.298863
   352        0.298852
   353        0.298841
   354        0.298830
   355        0.298820
   356        0.298809
   357        0.298799
   358        0.298789
   359        0.298779
   360        0.298770
   361        0.298760
   362        0.298751
   363        0.298742
   364        0.298733
   365        0.298724
   366        0.298715
   367        0.298707
   368        0.298698
   369        0.298690
   370        0.298682
   371        0.298674
   372        0.298666
   373        0.298658
   374        0.298650
   375        0.298643
   376        0.298636
   377        0.298628
   378        0.298621
   379        0.298614
   380        0.298607
   381        0.298600
   382        0.298594
   383        0.298587
   384        0.298581
   385        0.298574
   386        0.298568
   387        0.298562
   388        0.298556
   389        0.298550
   390        0.298544
   391        0.298538
   392        0.298532
   393        0.298527
   394        0.298521
   395        0.298516
   396        0.298511
   397        0.298505
   398        0.298500
   399        0.298495
   400        0.298490
   401        0.298485
   402        0.298480
   403        0.298476
   404        0.298471
   405        0.298466
   406        0.298462
   407        0.298457
   408        0.298453
   409        0.298449
   410        0.298445
   411        0.298440
   412        0.298436
   413        0.298432
   414        0.298428
   415        0.298424
   416        0.298420
   417        0.298417
   418        0.298413
   419        0.298409
   420        0.298406
   421        0.298402
   422        0.298399
   423        0.298395
   424        0.298392
   425        0.298389
   426        0.298385
   427        0.298382
   428        0.298379
   429        0.298376
   430        0.298373
   431        0.298370
   432        0.298367
   433        0.298364
   434        0.298361
   435        0.298358
   436        0.298355
   437        0.298353
   438        0.298350
   439        0.298347
   440        0.298345
   441        0.298342
   442        0.298339
   443        0.298337
   444        0.298334
   445        0.298332
   446        0.298330
   447        0.298327
   448        0.298325
   449        0.298323
   450        0.298321
   451        0.298318
   452        0.298316
   453        0.298314
   454        0.298312
   455        0.298310
   456        0.298308
   457        0.298306
   458        0.298304
   459        0.298302
   460        0.298300
   461        0.298298
   462        0.298296
   463        0.298294
   464        0.298293
   465        0.298291
   466        0.298289
   467        0.298287
   468        0.298286
   469        0.298284
   470        0.298282
   471        0.298281
   472        0.298279
   473        0.298278
   474        0.298276
   475        0.298275
   476        0.298273
   477        0.298272
   478        0.298270
   479        0.298269
   480        0.298267
   481        0.298266
   482        0.298265
   483        0.298263
   484        0.298262
   485        0.298261
   486        0.298259
   487        0.298258
   488        0.298257
   489        0.298256
   490        0.298255
   491        0.298253
   492        0.298252
   493        0.298251
   494        0.298250
   495        0.298249
   496        0.298248
   497        0.298247
   498        0.298246
   499        0.298245
   500        0.298244
   501        0.298243
   502        0.298242
   503        0.298241
   504        0.298240
   505        0.298239
   506        0.298238
   507        0.298237
   508        0.298236
   509        0.298235
   510        0.298234
   511        0.298233
   512        0.298232
   513        0.298231
   514        0.298231
   515        0.298230
   516        0.298229
   517        0.298228
   518        0.298227
   519        0.298227
   520        0.298226
   521        0.298225
   522        0.298224
   523        0.298224
   524        0.298223
   525        0.298222
   526        0.298221
   527        0.298221
   528        0.298220
   529        0.298219
   530        0.298219
   531        0.298218
   532        0.298217
   533        0.298217
   534        0.298216
   535        0.298216
   536        0.298215
   537        0.298214
   538        0.298214
   539        0.298213
   540        0.298213
   541        0.298212
   542        0.298212
   543        0.298211
   544        0.298210
   545        0.298210
   546        0.298209
   547        0.298209
   548        0.298208
   549        0.298208
   550        0.298207
   551        0.298207
   552        0.298206
   553        0.298206
   554        0.298205
   555        0.298205
   556        0.298205
   557        0.298204
   558        0.298204
   559        0.298203
   560        0.298203
   561        0.298202
   562        0.298202
   563        0.298202
   564        0.298201
   565        0.298201
   566        0.298200
   567        0.298200
   568        0.298200
   569        0.298199
   570        0.298199
   571        0.298198
   572        0.298198
   573        0.298198
   574        0.298197
   575        0.298197
   576        0.298197
   577        0.298196
   578        0.298196
   579        0.298196
   580        0.298195
   581        0.298195
   582        0.298195
   583        0.298194
   584        0.298194
   585        0.298194
   586        0.298193
   587        0.298193
   588        0.298193
   589        0.298193
   590        0.298192
   591        0.298192
   592        0.298192
   593        0.298192
   594        0.298191
   595        0.298191
   596        0.298191
   597        0.298190
   598        0.298190
   599        0.298190
   600        0.298190
   601        0.298189
   602        0.298189
   603        0.298189
   604        0.298189
   605        0.298189
   606        0.298188
   607        0.298188
   608        0.298188
   609        0.298188
   610        0.298187
   611        0.298187
   612        0.298187
   613        0.298187
   614        0.298187
   615        0.298186
   616        0.298186
   617        0.298186
   618        0.298186
   619        0.298186
   620        0.298185
   621        0.298185
   622        0.298185
   623        0.298185
   624        0.298185
   625        0.298184
   626        0.298184
   627        0.298184
   628        0.298184
   629        0.298184
   630        0.298184
   631        0.298183
   632        0.298183
   633        0.298183
   634        0.298183
   635        0.298183
   636        0.298183
   637        0.298182
   638        0.298182
   639        0.298182
   640        0.298182
   641        0.298182
   642        0.298182
   643        0.298182
   644        0.298181
   645        0.298181
   646        0.298181
   647        0.298181
   648        0.298181
   649        0.298181
   650        0.298181
   651        0.298181
   652        0.298180
   653        0.298180
   654        0.298180
   655        0.298180
   656        0.298180
   657        0.298180
   658        0.298180
   659        0.298180
   660        0.298179
   661        0.298179
   662        0.298179
   663        0.298179
   664        0.298179
   665        0.298179
   666        0.298179
   667        0.298179
   668        0.298179
   669        0.298178
   670        0.298178
   671        0.298178
   672        0.298178
