Variables= "stepCount","CDCoorZ","CDCoorY","CDCoorX","nC","State","Passk"
ZONE
F = POINT
