Variables= "stepCount","DropRadi","Radi(bottom)","HighZ","ContactAngles","CA_Bar"
ZONE
F = POINT
