Variables= "Y","X"
ZONE
F = POINT
        0.000000        0.000000
        1.201629        0.725000
        1.701629        2.225000
        2.201629        2.225000
        2.701629        1.725000
        3.201629        1.725000
        3.701629        1.225000
 --------Half of the high--------
        0.000000        0.000000
        1.201629        0.725000
        2.360211        1.927888
