Variables= "stepCount","BCrX","BCrY","BCrZ","PCrX","PCrY","PCrZ","nS1","nS2","nS3"
ZONE
F = POINT
