 Title=" "
 Variables= "X","Y","Z","Rho","BRho","FRho"
 zone
 I=   0  ,J=   0  ,K=   0,F=POINT
