 Title=" "
 Variables= "X","Y","Z","Vx","Vy","Vz","ax","ay","az"
 zone
 I=   0  ,J=   0  ,K=   0,F=POINT
