 Title=" "
 Variables= "X","Y","Z","Sxx","Syy","Szz","Sxy","Sxz","Syz","Pressure"
 zone
 I=   0  ,J=   0  ,K=   0,F=POINT
